#     
# Version   : 4.60.0014 (23.01.15)
# Task name : CRM wing                                          
# Re0       :  1.670E+06
# M0        :  8.500E-01
# P0        :  9.000E+03
# T0        :  3.000E+02
# R0        :  1.045E-01
# Len0      :  1.000E+00
# Time0     :  3.389E-03
# Vel0      :  2.950E+02
# U0,V0,W0  :  2.947E+02 1.452E+01 0.000E+00
# La0       :  2.618E-02
# Nu0       :  1.767E-04
# Nw0       :  8.167E-04
# Nt0       :  1.767E-04
# Kt0       :  5.212E-01
# Wt0       :  2.950E+03
# Et0       :  1.384E+02
# Lt0       :  2.719E-03
# Betta     :  1.741E+06
# TurbLevel :  1.000E+00
# Order Viscous :    2
# Order Turb    :    1
# Steady Flows 
# TM   :  Spalart-Allmaras
#     
variables = X Y 
Z
P
 zone  i=         268  j=         109
 T="      B2:full  "
  1.964321E-01  5.691724E-02  4.490766E-02 -2.37299930E-01
  1.964262E-01  5.691689E-02  4.885080E-02 -2.36898032E-01
  1.964197E-01  5.691651E-02  5.314019E-02 -2.36523625E-01
  1.964127E-01  5.691610E-02  5.780620E-02 -2.35659675E-01
  1.966485E-01  5.692997E-02  6.239988E-02 -2.34844095E-01
  1.967413E-01  5.693543E-02  6.632497E-02 -2.34142918E-01
  1.967787E-01  5.693763E-02  6.975065E-02 -2.33502326E-01
  1.968054E-01  5.693920E-02  7.277132E-02 -2.32898375E-01
  1.968447E-01  5.694151E-02  7.551736E-02 -2.32272138E-01
  1.969082E-01  5.694524E-02  7.803673E-02 -2.31776439E-01
  1.970014E-01  5.695073E-02  8.037073E-02 -2.31229056E-01
  1.971290E-01  5.695823E-02  8.258864E-02 -2.30612997E-01
  1.972926E-01  5.696781E-02  8.470338E-02 -2.30126806E-01
  1.974956E-01  5.697965E-02  8.675303E-02 -2.29484927E-01
  1.977442E-01  5.699411E-02  8.878551E-02 -2.28958191E-01
  1.980418E-01  5.701139E-02  9.080691E-02 -2.28313901E-01
  1.984004E-01  5.703216E-02  9.286958E-02 -2.27541102E-01
  1.988363E-01  5.705715E-02  9.502167E-02 -2.26900601E-01
  1.993516E-01  5.708661E-02  9.728722E-02 -2.26039468E-01
  1.998073E-01  5.711244E-02  9.953790E-02 -2.25085588E-01
  2.002020E-01  5.713474E-02  1.017727E-01 -2.24329512E-01
  2.005541E-01  5.715453E-02  1.039658E-01 -2.23574987E-01
  2.008841E-01  5.717295E-02  1.061406E-01 -2.22711739E-01
  2.012035E-01  5.719078E-02  1.082880E-01 -2.21761480E-01
  2.015213E-01  5.720837E-02  1.103972E-01 -2.20893456E-01
  2.018488E-01  5.722642E-02  1.124853E-01 -2.20084053E-01
  2.021920E-01  5.724530E-02  1.145411E-01 -2.19265906E-01
  2.025578E-01  5.726532E-02  1.165628E-01 -2.18350399E-01
  2.029549E-01  5.728690E-02  1.185610E-01 -2.17346099E-01
  2.033871E-01  5.731035E-02  1.205216E-01 -2.16376799E-01
  2.038619E-01  5.733581E-02  1.224489E-01 -2.15436188E-01
  2.043873E-01  5.736389E-02  1.243470E-01 -2.14507144E-01
  2.049659E-01  5.739455E-02  1.261988E-01 -2.13583809E-01
  2.056073E-01  5.742828E-02  1.280119E-01 -2.12563407E-01
  2.063193E-01  5.746539E-02  1.297835E-01 -2.11539807E-01
  2.071545E-01  5.750840E-02  1.315999E-01 -2.10585031E-01
  2.081050E-01  5.755678E-02  1.333912E-01 -2.09530818E-01
  2.091850E-01  5.761098E-02  1.351420E-01 -2.08413013E-01
  2.104079E-01  5.767135E-02  1.368333E-01 -2.07246812E-01
  2.117846E-01  5.773800E-02  1.384428E-01 -2.06142006E-01
  2.133213E-01  5.781095E-02  1.399459E-01 -2.05098621E-01
  2.150186E-01  5.788953E-02  1.413176E-01 -2.03958652E-01
  2.168676E-01  5.797294E-02  1.425391E-01 -2.02936230E-01
  2.188121E-01  5.805817E-02  1.436737E-01 -2.01917969E-01
  2.208379E-01  5.814428E-02  1.447350E-01 -2.00862438E-01
  2.229518E-01  5.823125E-02  1.457000E-01 -1.99734901E-01
  2.251560E-01  5.831883E-02  1.465477E-01 -1.98674136E-01
  2.274468E-01  5.840652E-02  1.472653E-01 -1.97760748E-01
  2.298161E-01  5.849369E-02  1.478514E-01 -1.96664652E-01
  2.322545E-01  5.857973E-02  1.483161E-01 -1.95602549E-01
  2.347536E-01  5.866405E-02  1.486773E-01 -1.94541820E-01
  2.373076E-01  5.874636E-02  1.489552E-01 -1.93483192E-01
  2.399133E-01  5.882611E-02  1.491691E-01 -1.92421367E-01
  2.425693E-01  5.890331E-02  1.493355E-01 -1.91323007E-01
  2.452755E-01  5.897770E-02  1.494682E-01 -1.90232567E-01
  2.480325E-01  5.904909E-02  1.495776E-01 -1.89293358E-01
  2.508415E-01  5.911733E-02  1.496723E-01 -1.88156302E-01
  2.537036E-01  5.918229E-02  1.497586E-01 -1.86986544E-01
  2.566206E-01  5.924379E-02  1.498416E-01 -1.85863739E-01
  2.595940E-01  5.930166E-02  1.499252E-01 -1.84888131E-01
  2.626257E-01  5.935574E-02  1.500127E-01 -1.83637565E-01
  2.657176E-01  5.940582E-02  1.501065E-01 -1.82354691E-01
  2.688716E-01  5.945172E-02  1.502086E-01 -1.81330463E-01
  2.720897E-01  5.949325E-02  1.503209E-01 -1.80117503E-01
  2.753743E-01  5.953018E-02  1.504446E-01 -1.78816533E-01
  2.787274E-01  5.956224E-02  1.505810E-01 -1.77650129E-01
  2.821515E-01  5.958924E-02  1.507312E-01 -1.76365434E-01
  2.856491E-01  5.961092E-02  1.508961E-01 -1.75037337E-01
  2.892230E-01  5.962703E-02  1.510717E-01 -1.73752695E-01
  2.928769E-01  5.963716E-02  1.512408E-01 -1.72424235E-01
  2.966137E-01  5.964114E-02  1.514031E-01 -1.71217740E-01
  3.004364E-01  5.963858E-02  1.515596E-01 -1.70026597E-01
  3.043483E-01  5.962915E-02  1.517112E-01 -1.68739814E-01
  3.083527E-01  5.961247E-02  1.518587E-01 -1.67704308E-01
  3.124532E-01  5.958814E-02  1.520025E-01 -1.66505062E-01
  3.166536E-01  5.955576E-02  1.521434E-01 -1.65374534E-01
  3.209578E-01  5.951487E-02  1.522816E-01 -1.64229127E-01
  3.253699E-01  5.946503E-02  1.524176E-01 -1.63041533E-01
  3.298945E-01  5.940564E-02  1.525519E-01 -1.61902365E-01
  3.345362E-01  5.933626E-02  1.526847E-01 -1.60735768E-01
  3.392999E-01  5.925634E-02  1.528163E-01 -1.59519707E-01
  3.441909E-01  5.916512E-02  1.529472E-01 -1.58285908E-01
  3.492145E-01  5.906213E-02  1.530775E-01 -1.57024984E-01
  3.543768E-01  5.894652E-02  1.532076E-01 -1.55789226E-01
  3.596838E-01  5.881763E-02  1.533378E-01 -1.54426983E-01
  3.651421E-01  5.867467E-02  1.534684E-01 -1.53154938E-01
  3.707587E-01  5.851672E-02  1.535997E-01 -1.51675755E-01
  3.765410E-01  5.834294E-02  1.537320E-01 -1.50317551E-01
  3.824968E-01  5.815229E-02  1.538656E-01 -1.48770132E-01
  3.886345E-01  5.794373E-02  1.540010E-01 -1.47338816E-01
  3.949631E-01  5.771613E-02  1.541386E-01 -1.45784280E-01
  4.014920E-01  5.746829E-02  1.542787E-01 -1.44162407E-01
  4.082313E-01  5.719885E-02  1.544220E-01 -1.42527435E-01
  4.151920E-01  5.690643E-02  1.545689E-01 -1.40882151E-01
  4.223857E-01  5.658951E-02  1.547202E-01 -1.39215094E-01
  4.298247E-01  5.624640E-02  1.548765E-01 -1.37382524E-01
  4.375224E-01  5.587534E-02  1.550388E-01 -1.35616154E-01
  4.454930E-01  5.547441E-02  1.552080E-01 -1.33798529E-01
  4.537521E-01  5.504149E-02  1.553856E-01 -1.31833964E-01
  4.623160E-01  5.457433E-02  1.555729E-01 -1.29752188E-01
  4.712028E-01  5.407045E-02  1.557718E-01 -1.27558881E-01
  4.804315E-01  5.352711E-02  1.559848E-01 -1.25282628E-01
  4.900231E-01  5.294145E-02  1.562148E-01 -1.22856427E-01
  5.000000E-01  5.231022E-02  1.564660E-01 -1.20186163E-01
  5.101698E-01  5.164438E-02  1.565658E-01 -1.17293433E-01
  5.203698E-01  5.095452E-02  1.567168E-01 -1.14073023E-01
  5.305610E-01  5.024386E-02  1.568871E-01 -1.10635242E-01
  5.407072E-01  4.951572E-02  1.570518E-01 -1.07006114E-01
  5.508006E-01  4.877152E-02  1.572018E-01 -1.03325320E-01
  5.608322E-01  4.801282E-02  1.573455E-01 -9.96636704E-02
  5.707920E-01  4.724124E-02  1.574790E-01 -9.60022480E-02
  5.806751E-01  4.645803E-02  1.576038E-01 -9.23628998E-02
  5.904651E-01  4.566538E-02  1.576983E-01 -8.87993365E-02
  6.001657E-01  4.486385E-02  1.577848E-01 -8.53884980E-02
  6.097687E-01  4.405493E-02  1.578643E-01 -8.21291169E-02
  6.192709E-01  4.323969E-02  1.579403E-01 -7.90068945E-02
  6.286602E-01  4.241998E-02  1.580078E-01 -7.59768723E-02
  6.379382E-01  4.159639E-02  1.580729E-01 -7.29975992E-02
  6.470965E-01  4.077045E-02  1.581362E-01 -7.00550236E-02
  6.561326E-01  3.994311E-02  1.581968E-01 -6.70930370E-02
  6.650283E-01  3.911674E-02  1.582464E-01 -6.41121188E-02
  6.737927E-01  3.829123E-02  1.582933E-01 -6.10352789E-02
  6.824204E-01  3.746775E-02  1.583388E-01 -5.80880079E-02
  6.909096E-01  3.664710E-02  1.583833E-01 -5.52200048E-02
  6.992500E-01  3.583093E-02  1.584235E-01 -5.24448566E-02
  7.074445E-01  3.501956E-02  1.584623E-01 -4.97552942E-02
  7.154898E-01  3.421393E-02  1.584978E-01 -4.71482075E-02
  7.233824E-01  3.341495E-02  1.585280E-01 -4.45821776E-02
  7.311138E-01  3.262404E-02  1.585429E-01 -4.20147750E-02
  7.386859E-01  3.184158E-02  1.585495E-01 -3.93588875E-02
  7.460986E-01  3.106810E-02  1.585502E-01 -3.64834510E-02
  7.533482E-01  3.030451E-02  1.585484E-01 -3.32737620E-02
  7.604373E-01  2.955103E-02  1.585433E-01 -2.96799107E-02
  7.673594E-01  2.880882E-02  1.585369E-01 -2.57125081E-02
  7.741191E-01  2.807786E-02  1.585304E-01 -2.14383179E-02
  7.807115E-01  2.735909E-02  1.585244E-01 -1.67984270E-02
  7.871466E-01  2.665203E-02  1.585191E-01 -1.16720571E-02
  7.934123E-01  2.595817E-02  1.585155E-01 -6.00379682E-03
  7.995109E-01  2.527768E-02  1.585138E-01  1.62727128E-04
  8.054378E-01  2.461183E-02  1.585138E-01  6.41275686E-03
  8.112009E-01  2.396000E-02  1.585150E-01  1.19914834E-02
  8.167928E-01  2.332317E-02  1.585166E-01  1.62839427E-02
  8.222157E-01  2.270135E-02  1.585174E-01  1.89153576E-02
  8.274674E-01  2.209526E-02  1.585162E-01  1.99639409E-02
  8.325544E-01  2.150487E-02  1.585116E-01  1.98474809E-02
  8.374734E-01  2.093096E-02  1.585023E-01  1.90587191E-02
  8.422257E-01  2.037359E-02  1.584870E-01  1.80589970E-02
  8.468103E-01  1.983207E-02  1.584645E-01  1.71704161E-02
  8.512297E-01  1.930784E-02  1.584331E-01  1.66061158E-02
  8.554843E-01  1.880127E-02  1.583908E-01  1.64960530E-02
  8.595757E-01  1.831053E-02  1.583359E-01  1.68600436E-02
  8.635054E-01  1.783782E-02  1.582653E-01  1.76775558E-02
  8.672754E-01  1.738224E-02  1.581759E-01  1.87886438E-02
  8.708869E-01  1.694360E-02  1.580611E-01  2.01334195E-02
  8.743420E-01  1.652303E-02  1.579130E-01  2.16262257E-02
  8.776425E-01  1.611868E-02  1.577257E-01  2.31868982E-02
  8.807918E-01  1.573258E-02  1.574964E-01  2.47679475E-02
  8.837743E-01  1.536439E-02  1.572318E-01  2.64555484E-02
  8.866341E-01  1.501132E-02  1.569351E-01  2.81645692E-02
  8.893535E-01  1.467346E-02  1.566203E-01  2.97710492E-02
  8.919399E-01  1.435196E-02  1.562921E-01  3.13231053E-02
  8.943965E-01  1.404519E-02  1.559557E-01  3.29249839E-02
  8.967296E-01  1.375322E-02  1.556135E-01  3.42778491E-02
  8.989423E-01  1.347595E-02  1.552678E-01  3.56047701E-02
  9.010412E-01  1.321156E-02  1.549202E-01  3.70335613E-02
  9.030292E-01  1.296114E-02  1.545729E-01  3.81999945E-02
  9.049134E-01  1.272318E-02  1.542272E-01  3.92512832E-02
  9.066967E-01  1.249708E-02  1.538845E-01  4.02095337E-02
  9.083863E-01  1.228285E-02  1.535454E-01  4.11492049E-02
  9.099837E-01  1.208012E-02  1.532097E-01  4.21426155E-02
  9.114953E-01  1.188725E-02  1.528776E-01  4.28879113E-02
  9.129221E-01  1.170519E-02  1.525488E-01  4.36570246E-02
  9.142705E-01  1.153315E-02  1.522226E-01  4.43590506E-02
  9.155413E-01  1.137070E-02  1.518997E-01  4.49885230E-02
  9.167400E-01  1.121679E-02  1.515794E-01  4.57339719E-02
  9.178686E-01  1.107189E-02  1.512627E-01  4.62429524E-02
  9.189322E-01  1.093533E-02  1.509493E-01  4.68415627E-02
  9.199329E-01  1.080685E-02  1.506402E-01  4.73251566E-02
  9.208751E-01  1.068558E-02  1.503355E-01  4.77714097E-02
  9.217609E-01  1.057115E-02  1.500361E-01  4.82694605E-02
  9.225948E-01  1.046342E-02  1.497420E-01  4.87941429E-02
  9.233787E-01  1.036215E-02  1.494538E-01  4.91437961E-02
  9.241164E-01  1.026685E-02  1.491716E-01  4.95721572E-02
  9.248091E-01  1.017736E-02  1.488954E-01  4.98944576E-02
  9.254605E-01  1.009322E-02  1.486248E-01  5.02819754E-02
  9.260726E-01  1.001388E-02  1.483589E-01  5.06568748E-02
  9.266465E-01  9.939301E-03  1.480965E-01  5.08947263E-02
  9.271844E-01  9.869391E-03  1.478380E-01  5.12440403E-02
  9.276841E-01  9.804445E-03  1.475807E-01  5.15520490E-02
  9.281511E-01  9.743757E-03  1.473281E-01  5.17889747E-02
  9.285825E-01  9.687690E-03  1.470759E-01  5.20161452E-02
  9.289930E-01  9.634336E-03  1.468256E-01  5.23074684E-02
  9.293857E-01  9.583292E-03  1.465721E-01  5.24825433E-02
  9.297812E-01  9.531894E-03  1.463105E-01  5.27083444E-02
  9.300565E-01  9.496117E-03  1.459238E-01  5.30001587E-02
  9.303417E-01  9.459045E-03  1.455392E-01  5.31899317E-02
  9.306364E-01  9.420751E-03  1.451561E-01  5.33841531E-02
  9.309397E-01  9.381272E-03  1.447738E-01  5.36819650E-02
  9.312510E-01  9.340584E-03  1.443914E-01  5.39644535E-02
  9.315692E-01  9.298984E-03  1.440080E-01  5.41871799E-02
  9.318933E-01  9.256601E-03  1.436225E-01  5.44058017E-02
  9.322224E-01  9.213582E-03  1.432334E-01  5.46384623E-02
  9.325551E-01  9.170082E-03  1.428394E-01  5.48512646E-02
  9.328902E-01  9.126270E-03  1.424390E-01  5.51452189E-02
  9.332264E-01  9.082327E-03  1.420306E-01  5.54077297E-02
  9.335620E-01  9.038444E-03  1.416127E-01  5.56078504E-02
  9.338957E-01  8.994821E-03  1.411837E-01  5.59232038E-02
  9.342258E-01  8.951664E-03  1.407421E-01  5.62351969E-02
  9.345507E-01  8.909186E-03  1.402865E-01  5.64731734E-02
  9.348688E-01  8.867597E-03  1.398157E-01  5.67414275E-02
  9.351786E-01  8.827101E-03  1.393285E-01  5.69763038E-02
  9.354785E-01  8.787891E-03  1.388242E-01  5.72319450E-02
  9.357672E-01  8.750145E-03  1.383020E-01  5.75468961E-02
  9.360435E-01  8.713907E-03  1.377614E-01  5.77672988E-02
  9.363064E-01  8.679341E-03  1.372019E-01  5.80894715E-02
  9.365550E-01  8.646650E-03  1.366236E-01  5.84284607E-02
  9.368019E-01  8.614183E-03  1.360315E-01  5.86263800E-02
  9.370718E-01  8.578685E-03  1.354360E-01  5.90087005E-02
  9.373652E-01  8.540102E-03  1.348374E-01  5.93344589E-02
  9.376780E-01  8.498968E-03  1.342332E-01  5.95879289E-02
  9.380005E-01  8.456564E-03  1.336178E-01  5.99582616E-02
  9.383176E-01  8.414864E-03  1.329828E-01  6.02327811E-02
  9.386142E-01  8.375858E-03  1.323203E-01  6.05667538E-02
  9.388805E-01  8.340849E-03  1.316268E-01  6.08511082E-02
  9.391137E-01  8.310182E-03  1.309028E-01  6.12602159E-02
  9.393162E-01  8.283547E-03  1.301503E-01  6.14948588E-02
  9.394924E-01  8.260379E-03  1.293711E-01  6.18271147E-02
  9.396466E-01  8.240104E-03  1.285662E-01  6.21813381E-02
  9.397826E-01  8.222213E-03  1.277361E-01  6.23914852E-02
  9.399037E-01  8.206299E-03  1.268806E-01  6.27906763E-02
  9.400121E-01  8.192035E-03  1.259990E-01  6.29775308E-02
  9.401100E-01  8.179168E-03  1.250907E-01  6.33618351E-02
  9.401988E-01  8.167492E-03  1.241542E-01  6.36037224E-02
  9.402797E-01  8.156849E-03  1.231886E-01  6.39243229E-02
  9.403538E-01  8.147109E-03  1.221922E-01  6.42180669E-02
  9.404218E-01  8.138168E-03  1.211634E-01  6.44920489E-02
  9.404843E-01  8.129940E-03  1.201002E-01  6.48090491E-02
  9.405414E-01  8.122432E-03  1.190006E-01  6.50723084E-02
  9.405922E-01  8.115760E-03  1.178624E-01  6.53949875E-02
  9.406374E-01  8.109819E-03  1.166831E-01  6.56657092E-02
  9.406776E-01  8.104522E-03  1.154603E-01  6.59823898E-02
  9.407135E-01  8.099795E-03  1.141909E-01  6.62690128E-02
  9.407454E-01  8.095593E-03  1.128719E-01  6.65699343E-02
  9.407737E-01  8.091876E-03  1.114998E-01  6.68733218E-02
  9.407985E-01  8.088611E-03  1.100708E-01  6.71528371E-02
  9.408200E-01  8.085775E-03  1.085809E-01  6.74740436E-02
  9.408384E-01  8.083348E-03  1.070254E-01  6.77416840E-02
  9.408539E-01  8.081314E-03  1.053995E-01  6.80667637E-02
  9.408664E-01  8.079658E-03  1.036974E-01  6.83576141E-02
  9.408761E-01  8.078373E-03  1.019131E-01  6.86305782E-02
  9.408831E-01  8.077455E-03  1.000398E-01  6.89332679E-02
  9.408873E-01  8.076895E-03  9.807002E-02  6.92108408E-02
  9.408889E-01  8.076689E-03  9.599524E-02  6.94705188E-02
  9.408878E-01  8.076828E-03  9.380599E-02  6.97497048E-02
  9.408843E-01  8.077301E-03  9.149184E-02  7.00078699E-02
  9.408783E-01  8.078094E-03  8.904074E-02  7.02595984E-02
  9.408700E-01  8.079183E-03  8.643918E-02  7.05091668E-02
  9.408598E-01  8.080533E-03  8.367185E-02  7.07625456E-02
  9.408480E-01  8.082087E-03  8.072127E-02  7.10203644E-02
  9.408352E-01  8.083767E-03  7.756741E-02  7.12906536E-02
  9.408225E-01  8.085450E-03  7.418726E-02  7.15847068E-02
  9.408111E-01  8.086943E-03  7.055416E-02  7.19207372E-02
  9.408036E-01  8.087937E-03  6.663715E-02  7.23113734E-02
  9.408036E-01  8.087932E-03  6.239997E-02  7.28100391E-02
  9.408177E-01  8.086074E-03  5.780000E-02  7.34281180E-02
  9.408663E-01  8.079680E-03  5.313449E-02  7.48041333E-02
  9.409109E-01  8.073781E-03  4.884556E-02  7.51933682E-02
  9.409519E-01  8.068357E-03  4.490284E-02  7.60713299E-02
  1.849827E-01  5.618914E-02  4.490774E-02 -2.41018269E-01
  1.849772E-01  5.618877E-02  4.885089E-02 -2.40134364E-01
  1.849713E-01  5.618836E-02  5.314028E-02 -2.39433595E-01
  1.849648E-01  5.618792E-02  5.780630E-02 -2.38430888E-01
  1.852159E-01  5.620505E-02  6.241635E-02 -2.37382437E-01
  1.853239E-01  5.621237E-02  6.639799E-02 -2.36404398E-01
  1.853762E-01  5.621592E-02  6.990795E-02 -2.35525443E-01
  1.854161E-01  5.621862E-02  7.303434E-02 -2.34702216E-01
  1.854670E-01  5.622207E-02  7.590015E-02 -2.33917121E-01
  1.855401E-01  5.622703E-02  7.855058E-02 -2.33149438E-01
  1.856408E-01  5.623383E-02  8.102465E-02 -2.32402709E-01
  1.857742E-01  5.624283E-02  8.338819E-02 -2.31667777E-01
  1.859418E-01  5.625413E-02  8.565351E-02 -2.30923668E-01
  1.861467E-01  5.626795E-02  8.785693E-02 -2.30182366E-01
  1.863955E-01  5.628470E-02  9.004424E-02 -2.29417464E-01
  1.866911E-01  5.630440E-02  9.222146E-02 -2.28628851E-01
  1.870452E-01  5.632799E-02  9.443880E-02 -2.27811542E-01
  1.874739E-01  5.635643E-02  9.674256E-02 -2.26923513E-01
  1.879797E-01  5.638976E-02  9.915578E-02 -2.25969675E-01
  1.884285E-01  5.641924E-02  1.015556E-01 -2.25019463E-01
  1.888199E-01  5.644469E-02  1.039407E-01 -2.24058672E-01
  1.891708E-01  5.646751E-02  1.062863E-01 -2.23099094E-01
  1.895014E-01  5.648887E-02  1.086146E-01 -2.22135064E-01
  1.898223E-01  5.650951E-02  1.109172E-01 -2.21168751E-01
  1.901419E-01  5.653004E-02  1.131836E-01 -2.20192664E-01
  1.904714E-01  5.655110E-02  1.154300E-01 -2.19203593E-01
  1.908165E-01  5.657300E-02  1.176458E-01 -2.18201917E-01
  1.911834E-01  5.659627E-02  1.198292E-01 -2.17196040E-01
  1.915810E-01  5.662133E-02  1.219903E-01 -2.16180744E-01
  1.920387E-01  5.665001E-02  1.241131E-01 -2.15155669E-01
  1.926033E-01  5.668519E-02  1.261866E-01 -2.14121540E-01
  1.932628E-01  5.672596E-02  1.282055E-01 -2.13091965E-01
  1.940002E-01  5.677113E-02  1.301557E-01 -2.12080231E-01
  1.948052E-01  5.681997E-02  1.320527E-01 -2.11074927E-01
  1.956079E-01  5.686821E-02  1.339259E-01 -2.10091555E-01
  1.968135E-01  5.693968E-02  1.357121E-01 -2.09098565E-01
  1.980969E-01  5.701458E-02  1.375255E-01 -2.08134106E-01
  1.994942E-01  5.709471E-02  1.393085E-01 -2.07127288E-01
  2.010176E-01  5.718040E-02  1.410459E-01 -2.06103365E-01
  2.026886E-01  5.727242E-02  1.426954E-01 -2.05068346E-01
  2.044937E-01  5.736955E-02  1.442510E-01 -2.04032665E-01
  2.064376E-01  5.747149E-02  1.456936E-01 -2.03003776E-01
  2.084951E-01  5.757646E-02  1.470218E-01 -2.01971575E-01
  2.106556E-01  5.768341E-02  1.482446E-01 -2.01047641E-01
  2.129076E-01  5.779143E-02  1.493634E-01 -2.00076242E-01
  2.152483E-01  5.790002E-02  1.503822E-01 -1.99072460E-01
  2.176721E-01  5.800851E-02  1.512922E-01 -1.98032016E-01
  2.201776E-01  5.811655E-02  1.520854E-01 -1.96974893E-01
  2.227539E-01  5.822323E-02  1.527667E-01 -1.96007025E-01
  2.253964E-01  5.832823E-02  1.533386E-01 -1.94957211E-01
  2.280954E-01  5.843074E-02  1.538181E-01 -1.93878306E-01
  2.308489E-01  5.853058E-02  1.542179E-01 -1.92764770E-01
  2.336518E-01  5.862735E-02  1.545534E-01 -1.91679441E-01
  2.365045E-01  5.872088E-02  1.548406E-01 -1.90532459E-01
  2.394051E-01  5.881087E-02  1.550897E-01 -1.89344615E-01
  2.423562E-01  5.889729E-02  1.553139E-01 -1.88128369E-01
  2.453568E-01  5.897988E-02  1.555178E-01 -1.86943460E-01
  2.484100E-01  5.905851E-02  1.557111E-01 -1.85698826E-01
  2.515157E-01  5.913307E-02  1.558963E-01 -1.84434158E-01
  2.546776E-01  5.920335E-02  1.560804E-01 -1.83183609E-01
  2.578957E-01  5.926920E-02  1.562644E-01 -1.81950817E-01
  2.611732E-01  5.933045E-02  1.564524E-01 -1.80675507E-01
  2.645107E-01  5.938689E-02  1.566455E-01 -1.79401273E-01
  2.679119E-01  5.943831E-02  1.568468E-01 -1.78165788E-01
  2.713776E-01  5.948454E-02  1.570564E-01 -1.76904866E-01
  2.749112E-01  5.952529E-02  1.572765E-01 -1.75631769E-01
  2.785143E-01  5.956037E-02  1.575061E-01 -1.74385636E-01
  2.821909E-01  5.958952E-02  1.577444E-01 -1.73111784E-01
  2.859441E-01  5.961247E-02  1.579879E-01 -1.71854135E-01
  2.897769E-01  5.962893E-02  1.582306E-01 -1.70609267E-01
  2.936913E-01  5.963858E-02  1.584700E-01 -1.69364179E-01
  2.976903E-01  5.964109E-02  1.587041E-01 -1.68214873E-01
  3.017765E-01  5.963612E-02  1.589331E-01 -1.67057690E-01
  3.059536E-01  5.962332E-02  1.591573E-01 -1.65917701E-01
  3.102245E-01  5.960227E-02  1.593766E-01 -1.64846183E-01
  3.145933E-01  5.957258E-02  1.595918E-01 -1.63731289E-01
  3.190635E-01  5.953383E-02  1.598023E-01 -1.62666996E-01
  3.236392E-01  5.948551E-02  1.600092E-01 -1.61562185E-01
  3.283247E-01  5.942717E-02  1.602118E-01 -1.60486934E-01
  3.331240E-01  5.935828E-02  1.604115E-01 -1.59353992E-01
  3.380421E-01  5.927827E-02  1.606075E-01 -1.58227503E-01
  3.430836E-01  5.918655E-02  1.608009E-01 -1.57039665E-01
  3.482536E-01  5.908254E-02  1.609912E-01 -1.55854235E-01
  3.535572E-01  5.896552E-02  1.611793E-01 -1.54597606E-01
  3.590000E-01  5.883481E-02  1.613647E-01 -1.53379543E-01
  3.645872E-01  5.868967E-02  1.615484E-01 -1.52041767E-01
  3.703246E-01  5.852932E-02  1.617299E-01 -1.50757996E-01
  3.762189E-01  5.835292E-02  1.619098E-01 -1.49342232E-01
  3.822851E-01  5.815930E-02  1.620881E-01 -1.47937727E-01
  3.885294E-01  5.794740E-02  1.622651E-01 -1.46445205E-01
  3.949595E-01  5.771627E-02  1.624401E-01 -1.44908976E-01
  4.015827E-01  5.746475E-02  1.626133E-01 -1.43310469E-01
  4.084084E-01  5.719160E-02  1.627837E-01 -1.41648742E-01
  4.154454E-01  5.689552E-02  1.629502E-01 -1.39937564E-01
  4.227045E-01  5.657511E-02  1.631109E-01 -1.38163238E-01
  4.301970E-01  5.622882E-02  1.632742E-01 -1.36404958E-01
  4.379350E-01  5.585500E-02  1.634441E-01 -1.34568589E-01
  4.459312E-01  5.545189E-02  1.636206E-01 -1.32664341E-01
  4.542001E-01  5.501750E-02  1.638029E-01 -1.30721867E-01
  4.627582E-01  5.454970E-02  1.639908E-01 -1.28717819E-01
  4.716192E-01  5.404634E-02  1.641855E-01 -1.26662222E-01
  4.808000E-01  5.350500E-02  1.643877E-01 -1.24563150E-01
  4.903123E-01  5.292347E-02  1.645951E-01 -1.22319665E-01
  5.001694E-01  5.229932E-02  1.647744E-01 -1.19859035E-01
  5.102620E-01  5.163825E-02  1.648168E-01 -1.17135217E-01
  5.204293E-01  5.095043E-02  1.648426E-01 -1.14063315E-01
  5.306093E-01  5.024044E-02  1.648790E-01 -1.10738422E-01
  5.407628E-01  4.951167E-02  1.649177E-01 -1.07266505E-01
  5.508753E-01  4.876594E-02  1.649476E-01 -1.03761675E-01
  5.609354E-01  4.800492E-02  1.649702E-01 -1.00276742E-01
  5.709343E-01  4.723008E-02  1.649835E-01 -9.67684383E-02
  5.808634E-01  4.644294E-02  1.649856E-01 -9.31955716E-02
  5.907125E-01  4.564514E-02  1.649679E-01 -8.96019856E-02
  6.004793E-01  4.483767E-02  1.649394E-01 -8.60851948E-02
  6.101573E-01  4.402187E-02  1.649039E-01 -8.26915622E-02
  6.197409E-01  4.319901E-02  1.648629E-01 -7.94102808E-02
  6.292203E-01  4.237063E-02  1.648159E-01 -7.62214114E-02
  6.385933E-01  4.153775E-02  1.647653E-01 -7.30808784E-02
  6.478524E-01  4.070171E-02  1.647127E-01 -6.99590806E-02
  6.569930E-01  3.986369E-02  1.646561E-01 -6.68241851E-02
  6.660004E-01  3.902573E-02  1.645927E-01 -6.36795483E-02
  6.748784E-01  3.818820E-02  1.645264E-01 -6.05519778E-02
  6.836217E-01  3.735224E-02  1.644603E-01 -5.74574631E-02
  6.922281E-01  3.651872E-02  1.643975E-01 -5.43586122E-02
  7.006882E-01  3.568921E-02  1.643342E-01 -5.13836289E-02
  7.090027E-01  3.486422E-02  1.642718E-01 -4.85178048E-02
  7.171679E-01  3.404476E-02  1.642095E-01 -4.57577837E-02
  7.251782E-01  3.323197E-02  1.641350E-01 -4.30706785E-02
  7.330253E-01  3.242724E-02  1.640467E-01 -4.03810052E-02
  7.407095E-01  3.163116E-02  1.639468E-01 -3.76028235E-02
  7.482296E-01  3.084438E-02  1.638396E-01 -3.45872937E-02
  7.555831E-01  3.006769E-02  1.637217E-01 -3.12207624E-02
  7.627702E-01  2.930160E-02  1.636003E-01 -2.74453697E-02
  7.697865E-01  2.854706E-02  1.634776E-01 -2.33196249E-02
  7.766342E-01  2.780432E-02  1.633568E-01 -1.88977290E-02
  7.833105E-01  2.707415E-02  1.632409E-01 -1.41351715E-02
  7.898208E-01  2.635648E-02  1.631282E-01 -8.93642311E-03
  7.961567E-01  2.565250E-02  1.630176E-01 -3.15765237E-03
  8.023192E-01  2.496288E-02  1.629087E-01  3.05429851E-03
  8.083056E-01  2.428778E-02  1.627970E-01  9.11161014E-03
  8.141206E-01  2.362757E-02  1.626864E-01  1.42488399E-02
  8.197592E-01  2.298306E-02  1.625769E-01  1.77810507E-02
  8.252232E-01  2.235454E-02  1.624692E-01  1.94975906E-02
  8.305116E-01  2.174266E-02  1.623637E-01  1.96712040E-02
  8.356289E-01  2.114698E-02  1.622580E-01  1.88016869E-02
  8.405731E-01  2.056742E-02  1.621499E-01  1.75492024E-02
  8.453456E-01  2.000515E-02  1.620377E-01  1.63634996E-02
  8.499462E-01  1.946066E-02  1.619190E-01  1.55758851E-02
  8.543771E-01  1.893311E-02  1.617928E-01  1.53700909E-02
  8.586394E-01  1.842284E-02  1.616572E-01  1.57409293E-02
  8.627354E-01  1.793087E-02  1.615101E-01  1.66280044E-02
  8.666668E-01  1.745578E-02  1.613485E-01  1.78946436E-02
  8.704361E-01  1.699848E-02  1.611690E-01  1.93971134E-02
  8.740453E-01  1.655914E-02  1.609667E-01  2.10439071E-02
  8.774969E-01  1.613652E-02  1.607364E-01  2.27882168E-02
  8.807927E-01  1.573248E-02  1.604749E-01  2.45543182E-02
  8.839357E-01  1.534447E-02  1.601814E-01  2.63269755E-02
  8.869235E-01  1.497551E-02  1.598603E-01  2.80603023E-02
  8.897801E-01  1.462042E-02  1.595151E-01  2.97332549E-02
  8.924983E-01  1.428255E-02  1.591531E-01  3.13121512E-02
  8.950862E-01  1.395888E-02  1.587787E-01  3.28063699E-02
  8.975472E-01  1.365090E-02  1.583967E-01  3.42319009E-02
  8.998884E-01  1.335678E-02  1.580085E-01  3.55331903E-02
  9.021127E-01  1.307659E-02  1.576180E-01  3.67698350E-02
  9.042304E-01  1.280976E-02  1.572256E-01  3.79011261E-02
  9.062440E-01  1.255447E-02  1.568348E-01  3.89021817E-02
  9.081722E-01  1.231000E-02  1.564450E-01  3.98581069E-02
  9.100120E-01  1.207651E-02  1.560585E-01  4.07236968E-02
  9.117477E-01  1.185504E-02  1.556710E-01  4.15329174E-02
  9.133550E-01  1.164995E-02  1.552564E-01  4.22765175E-02
  9.148784E-01  1.145558E-02  1.549105E-01  4.28979972E-02
  9.163168E-01  1.127113E-02  1.545693E-01  4.35112513E-02
  9.176764E-01  1.109657E-02  1.542322E-01  4.40703473E-02
  9.189584E-01  1.093196E-02  1.538997E-01  4.45889745E-02
  9.201682E-01  1.077663E-02  1.535711E-01  4.50589498E-02
  9.213076E-01  1.062970E-02  1.532473E-01  4.54703150E-02
  9.223819E-01  1.049092E-02  1.529278E-01  4.58885623E-02
  9.233931E-01  1.036029E-02  1.526137E-01  4.62649925E-02
  9.243457E-01  1.023724E-02  1.523048E-01  4.66159982E-02
  9.252417E-01  1.012148E-02  1.520021E-01  4.69510169E-02
  9.260856E-01  1.001220E-02  1.517054E-01  4.72540452E-02
  9.268793E-01  9.909048E-03  1.514153E-01  4.75390816E-02
  9.276265E-01  9.811936E-03  1.511319E-01  4.78368298E-02
  9.283285E-01  9.720694E-03  1.508550E-01  4.81025335E-02
  9.289890E-01  9.634853E-03  1.505842E-01  4.83638240E-02
  9.296100E-01  9.554151E-03  1.503186E-01  4.86071628E-02
  9.301926E-01  9.478434E-03  1.500571E-01  4.88473599E-02
  9.307391E-01  9.407408E-03  1.498002E-01  4.90814274E-02
  9.312473E-01  9.341057E-03  1.495450E-01  4.92960401E-02
  9.317228E-01  9.278898E-03  1.492947E-01  4.95202227E-02
  9.321621E-01  9.221462E-03  1.490429E-01  4.97382256E-02
  9.325746E-01  9.167538E-03  1.487817E-01  4.99551694E-02
  9.329606E-01  9.117071E-03  1.485108E-01  5.01566900E-02
  9.333389E-01  9.067615E-03  1.482300E-01  5.03659294E-02
  9.336012E-01  9.033319E-03  1.478368E-01  5.05612322E-02
  9.338730E-01  8.997792E-03  1.474449E-01  5.07461738E-02
  9.341536E-01  8.961105E-03  1.470536E-01  5.09438702E-02
  9.344424E-01  8.923345E-03  1.466622E-01  5.11476752E-02
  9.347387E-01  8.884612E-03  1.462700E-01  5.13572949E-02
  9.350415E-01  8.845019E-03  1.458760E-01  5.15757815E-02
  9.353500E-01  8.804687E-03  1.454790E-01  5.18033761E-02
  9.356631E-01  8.763755E-03  1.450778E-01  5.20340998E-02
  9.359797E-01  8.722296E-03  1.446710E-01  5.22740874E-02
  9.362984E-01  8.680384E-03  1.442572E-01  5.25232740E-02
  9.366182E-01  8.638338E-03  1.438348E-01  5.27825603E-02
  9.369375E-01  8.596348E-03  1.434025E-01  5.30474104E-02
  9.372550E-01  8.554603E-03  1.429586E-01  5.33226187E-02
  9.375691E-01  8.513299E-03  1.425017E-01  5.35998839E-02
  9.378783E-01  8.472636E-03  1.420305E-01  5.38828298E-02
  9.381811E-01  8.432815E-03  1.415438E-01  5.41752304E-02
  9.384761E-01  8.394021E-03  1.410405E-01  5.44683819E-02
  9.387619E-01  8.356445E-03  1.405197E-01  5.47738951E-02
  9.390371E-01  8.320253E-03  1.399808E-01  5.50861552E-02
  9.393007E-01  8.285593E-03  1.394231E-01  5.53944805E-02
  9.395516E-01  8.252592E-03  1.388464E-01  5.57167806E-02
  9.397892E-01  8.221350E-03  1.382504E-01  5.60390390E-02
  9.400252E-01  8.190316E-03  1.376400E-01  5.63692950E-02
  9.402830E-01  8.156421E-03  1.370248E-01  5.67154440E-02
  9.405629E-01  8.119617E-03  1.364050E-01  5.70739021E-02
  9.408610E-01  8.080371E-03  1.357784E-01  5.74426209E-02
  9.411683E-01  8.039735E-03  1.351395E-01  5.78384131E-02
  9.414706E-01  7.999748E-03  1.344803E-01  5.82271880E-02
  9.417537E-01  7.962310E-03  1.337934E-01  5.86286948E-02
  9.420083E-01  7.928648E-03  1.330754E-01  5.90237460E-02
  9.422318E-01  7.899084E-03  1.323267E-01  5.94154605E-02
  9.424266E-01  7.873325E-03  1.315491E-01  5.97952238E-02
  9.425966E-01  7.850837E-03  1.307442E-01  6.01823134E-02