#     
# Version   : 4.60.0014 (23.01.15)
# Task name : CRM wing                                          
# Re0       :  1.670E+06
# M0        :  8.500E-01
# P0        :  9.000E+03
# T0        :  3.000E+02
# R0        :  1.045E-01
# Len0      :  1.000E+00
# Time0     :  3.389E-03
# Vel0      :  2.950E+02
# U0,V0,W0  :  2.947E+02 1.452E+01 0.000E+00
# La0       :  2.618E-02
# Nu0       :  1.767E-04
# Nw0       :  8.167E-04
# Nt0       :  1.767E-04
# Kt0       :  5.212E-01
# Wt0       :  2.950E+03
# Et0       :  1.384E+02
# Lt0       :  2.719E-03
# Betta     :  1.741E+06
# TurbLevel :  1.000E+00
# Order Viscous :    2
# Order Turb    :    1
# Steady Flows 
# TM   :  Spalart-Allmaras
#     
variables = X Y 
Z
P
 zone  i=         417  j=          91
 T="      B1:full  "
  9.914068E-01  0.000000E+00  5.780000E-02  1.16965288E-01
  9.914032E-01  9.993877E-05  5.780000E-02  1.16726984E-01
  9.913914E-01  2.061077E-04  5.780000E-02  1.16177024E-01
  9.913698E-01  3.181453E-04  5.780000E-02  1.15460770E-01
  9.913368E-01  4.354958E-04  5.780000E-02  1.14809676E-01
  9.912909E-01  5.573683E-04  5.780000E-02  1.14398462E-01
  9.912299E-01  6.824315E-04  5.780000E-02  1.14334494E-01
  9.911504E-01  8.081179E-04  5.780000E-02  1.14755950E-01
  9.910523E-01  9.330407E-04  5.780000E-02  1.15089766E-01
  9.909321E-01  1.052852E-03  5.780000E-02  1.14493386E-01
  9.907887E-01  1.163795E-03  5.780000E-02  1.13031804E-01
  9.906213E-01  1.261142E-03  5.780000E-02  1.10707425E-01
  9.904279E-01  1.332649E-03  5.780000E-02  1.11817474E-01
  9.902098E-01  1.370674E-03  5.780000E-02  1.12738760E-01
  9.899765E-01  1.409851E-03  5.780000E-02  1.11774990E-01
  9.897261E-01  1.445131E-03  5.780000E-02  1.12436320E-01
  9.894585E-01  1.482580E-03  5.780000E-02  1.12375016E-01
  9.891726E-01  1.522600E-03  5.780000E-02  1.12557226E-01
  9.888670E-01  1.565368E-03  5.780000E-02  1.12590001E-01
  9.885405E-01  1.610943E-03  5.780000E-02  1.12558621E-01
  9.881915E-01  1.659562E-03  5.780000E-02  1.12424175E-01
  9.878185E-01  1.711522E-03  5.780000E-02  1.12208853E-01
  9.874198E-01  1.767055E-03  5.780000E-02  1.11930219E-01
  9.869938E-01  1.826408E-03  5.780000E-02  1.11585122E-01
  9.865384E-01  1.889845E-03  5.780000E-02  1.11170040E-01
  9.860516E-01  1.957651E-03  5.780000E-02  1.10696850E-01
  9.855314E-01  2.030128E-03  5.780000E-02  1.10151402E-01
  9.849752E-01  2.107600E-03  5.780000E-02  1.09548345E-01
  9.843807E-01  2.190127E-03  5.780000E-02  1.08901405E-01
  9.837451E-01  2.278244E-03  5.780000E-02  1.08179033E-01
  9.830656E-01  2.372448E-03  5.780000E-02  1.07384705E-01
  9.823392E-01  2.473163E-03  5.780000E-02  1.06521972E-01
  9.815625E-01  2.580845E-03  5.780000E-02  1.05568561E-01
  9.807320E-01  2.695922E-03  5.780000E-02  1.04581424E-01
  9.798438E-01  2.818452E-03  5.780000E-02  1.03535859E-01
  9.788941E-01  2.949482E-03  5.780000E-02  1.02393615E-01
  9.778784E-01  3.089610E-03  5.780000E-02  1.01155595E-01
  9.767921E-01  3.239478E-03  5.780000E-02  9.98768843E-02
  9.756301E-01  3.399041E-03  5.780000E-02  9.85615527E-02
  9.743871E-01  3.569683E-03  5.780000E-02  9.71235955E-02
  9.730573E-01  3.752236E-03  5.780000E-02  9.56353055E-02
  9.716345E-01  3.946911E-03  5.780000E-02  9.41334027E-02
  9.701120E-01  4.154861E-03  5.780000E-02  9.25242665E-02
  9.684828E-01  4.377393E-03  5.780000E-02  9.09012769E-02
  9.667390E-01  4.614477E-03  5.780000E-02  8.92679356E-02
  9.648724E-01  4.868120E-03  5.780000E-02  8.75810859E-02
  9.628741E-01  5.138896E-03  5.780000E-02  8.59150041E-02
  9.607345E-01  5.428130E-03  5.780000E-02  8.42590452E-02
  9.584431E-01  5.737094E-03  5.780000E-02  8.26049628E-02
  9.559889E-01  6.067088E-03  5.780000E-02  8.10102213E-02
  9.533598E-01  6.419417E-03  5.780000E-02  7.94351168E-02
  9.505428E-01  6.796144E-03  5.780000E-02  7.79333666E-02
  9.475237E-01  7.197807E-03  5.780000E-02  7.64696570E-02
  9.442875E-01  7.627208E-03  5.780000E-02  7.48756739E-02
  9.408177E-01  8.086074E-03  5.780000E-02  7.34280939E-02
  9.373476E-01  8.542419E-03  5.780000E-02  7.20503089E-02
  9.339483E-01  8.987944E-03  5.780000E-02  7.05889759E-02
  9.305836E-01  9.427611E-03  5.780000E-02  6.90445922E-02
  9.272209E-01  9.864653E-03  5.780000E-02  6.73548458E-02
  9.239077E-01  1.029382E-02  5.780000E-02  6.53942978E-02
  9.205705E-01  1.072491E-02  5.780000E-02  6.31733282E-02
  9.172430E-01  1.115222E-02  5.780000E-02  6.06813845E-02
  9.139352E-01  1.157593E-02  5.780000E-02  5.78841633E-02
  9.105598E-01  1.200661E-02  5.780000E-02  5.48601655E-02
  9.071992E-01  1.243336E-02  5.780000E-02  5.16988239E-02
  9.037991E-01  1.286416E-02  5.780000E-02  4.85361801E-02
  9.003438E-01  1.329942E-02  5.780000E-02  4.55551473E-02
  8.968861E-01  1.373364E-02  5.780000E-02  4.28485455E-02
  8.933234E-01  1.417947E-02  5.780001E-02  4.05884369E-02
  8.897261E-01  1.462714E-02  5.780002E-02  3.88366011E-02
  8.860842E-01  1.507923E-02  5.780005E-02  3.76050818E-02
  8.823173E-01  1.554426E-02  5.780009E-02  3.69144180E-02
  8.785183E-01  1.601131E-02  5.780012E-02  3.65706693E-02
  8.746075E-01  1.649068E-02  5.780016E-02  3.65445750E-02
  8.705970E-01  1.697890E-02  5.780019E-02  3.67033552E-02
  8.665397E-01  1.747113E-02  5.780023E-02  3.68030809E-02
  8.622980E-01  1.798373E-02  5.780027E-02  3.68226112E-02
  8.579896E-01  1.850079E-02  5.780031E-02  3.66413513E-02
  8.535738E-01  1.902876E-02  5.780035E-02  3.60813073E-02
  8.489886E-01  1.957460E-02  5.780039E-02  3.51374491E-02
  8.443308E-01  2.012507E-02  5.780043E-02  3.37581783E-02
  8.394919E-01  2.069423E-02  5.780047E-02  3.17485670E-02
  8.345214E-01  2.127590E-02  5.780052E-02  2.90368075E-02
  8.294575E-01  2.186530E-02  5.780056E-02  2.56499729E-02
  8.241515E-01  2.247834E-02  5.780061E-02  2.14576528E-02
  8.187504E-01  2.309876E-02  5.780066E-02  1.66086654E-02
  8.131823E-01  2.373444E-02  5.780071E-02  1.12007701E-02
  8.074155E-01  2.438854E-02  5.780076E-02  5.27957868E-03
  8.015423E-01  2.505018E-02  5.780081E-02 -1.03676930E-03
  7.954267E-01  2.573388E-02  5.780087E-02 -7.93906513E-03
  7.891615E-01  2.642937E-02  5.780092E-02 -1.52487620E-02
  7.827527E-01  2.713539E-02  5.780098E-02 -2.25835684E-02
  7.760805E-01  2.786462E-02  5.780104E-02 -2.95649746E-02
  7.692849E-01  2.860124E-02  5.780110E-02 -3.57129446E-02
  7.622734E-01  2.935478E-02  5.780116E-02 -4.10666563E-02
  7.550529E-01  3.012394E-02  5.780123E-02 -4.58072202E-02
  7.477005E-01  3.089998E-02  5.780129E-02 -5.00700404E-02
  7.400641E-01  3.169833E-02  5.780136E-02 -5.40429250E-02
  7.322746E-01  3.250459E-02  5.780143E-02 -5.76620104E-02
  7.243028E-01  3.332122E-02  5.780150E-02 -6.09531208E-02
  7.160720E-01  3.415528E-02  5.780158E-02 -6.39982989E-02
  7.076994E-01  3.499417E-02  5.780165E-02 -6.68195739E-02
  6.990838E-01  3.584728E-02  5.780173E-02 -6.95288607E-02
  6.902684E-01  3.670944E-02  5.780181E-02 -7.21602979E-02
  6.813055E-01  3.757476E-02  5.780189E-02 -7.47055531E-02
  6.721050E-01  3.845106E-02  5.780197E-02 -7.72259253E-02
  6.629556E-01  3.931033E-02  5.780205E-02 -7.96479171E-02
  6.537952E-01  4.015829E-02  5.780213E-02 -8.20463892E-02
  6.445879E-01  4.099797E-02  5.780221E-02 -8.45175643E-02
  6.354071E-01  4.182239E-02  5.780230E-02 -8.70961215E-02
  6.261590E-01  4.263969E-02  5.780238E-02 -8.98872906E-02
  6.169003E-01  4.344443E-02  5.780246E-02 -9.29053871E-02
  6.076392E-01  4.423561E-02  5.780254E-02 -9.61531539E-02
  5.982993E-01  4.501930E-02  5.780263E-02 -9.96735477E-02
  5.889655E-01  4.578786E-02  5.780271E-02 -1.03406688E-01
  5.795914E-01  4.654475E-02  5.780279E-02 -1.07340986E-01
  5.701798E-01  4.728917E-02  5.780288E-02 -1.11417013E-01
  5.607634E-01  4.801808E-02  5.780296E-02 -1.15573591E-01
  5.512925E-01  4.873475E-02  5.780305E-02 -1.19773732E-01
  5.418110E-01  4.943528E-02  5.780313E-02 -1.23900580E-01
  5.323096E-01  5.011983E-02  5.780321E-02 -1.27846033E-01
  5.227767E-01  5.078859E-02  5.780330E-02 -1.31545719E-01
  5.132349E-01  5.143938E-02  5.780338E-02 -1.34944130E-01
  5.036722E-01  5.207237E-02  5.780347E-02 -1.38065306E-01
  4.940998E-01  5.268622E-02  5.780356E-02 -1.41001769E-01
  4.845114E-01  5.328056E-02  5.780364E-02 -1.43809212E-01
  4.749236E-01  5.385380E-02  5.780373E-02 -1.46513241E-01
  4.653255E-01  5.440583E-02  5.780381E-02 -1.49111121E-01
  4.557180E-01  5.493587E-02  5.780390E-02 -1.51630917E-01
  4.461242E-01  5.544195E-02  5.780398E-02 -1.54083734E-01
  4.365103E-01  5.592504E-02  5.780407E-02 -1.56544964E-01
  4.269135E-01  5.638250E-02  5.780415E-02 -1.59061721E-01
  4.173171E-01  5.681437E-02  5.780424E-02 -1.61589665E-01
  4.076935E-01  5.722085E-02  5.780432E-02 -1.64166499E-01
  3.981197E-01  5.759794E-02  5.780441E-02 -1.66738721E-01
  3.885127E-01  5.794799E-02  5.780449E-02 -1.69356335E-01
  3.789047E-01  5.826867E-02  5.780458E-02 -1.72048842E-01
  3.693152E-01  5.855836E-02  5.780467E-02 -1.74794616E-01
  3.596724E-01  5.881792E-02  5.780475E-02 -1.77665641E-01
  3.500644E-01  5.904375E-02  5.780484E-02 -1.80629333E-01
  3.404178E-01  5.923628E-02  5.780492E-02 -1.83715899E-01
  3.307130E-01  5.939402E-02  5.780501E-02 -1.86997224E-01
  3.210380E-01  5.951404E-02  5.780509E-02 -1.90442518E-01
  3.112653E-01  5.959594E-02  5.780518E-02 -1.94189545E-01
  3.014571E-01  5.963678E-02  5.780527E-02 -1.98220778E-01
  2.915962E-01  5.963431E-02  5.780536E-02 -2.02362276E-01
  2.815924E-01  5.958524E-02  5.780545E-02 -2.06521648E-01
  2.715704E-01  5.948691E-02  5.780553E-02 -2.10334712E-01
  2.613870E-01  5.933424E-02  5.780562E-02 -2.13864715E-01
  2.510443E-01  5.912209E-02  5.780572E-02 -2.17276062E-01
  2.405984E-01  5.884644E-02  5.780581E-02 -2.20551979E-01
  2.298997E-01  5.849670E-02  5.780590E-02 -2.24134829E-01
  2.190243E-01  5.806733E-02  5.780600E-02 -2.28080463E-01
  2.078954E-01  5.754614E-02  5.780610E-02 -2.32011037E-01
  1.964127E-01  5.691610E-02  5.780620E-02 -2.35659675E-01
  1.849648E-01  5.618792E-02  5.780630E-02 -2.38434032E-01
  1.739727E-01  5.538799E-02  5.780640E-02 -2.43454672E-01
  1.634348E-01  5.452142E-02  5.780650E-02 -2.47626233E-01
  1.533477E-01  5.359322E-02  5.780659E-02 -2.51273117E-01
  1.437062E-01  5.260867E-02  5.780658E-02 -2.53848318E-01
  1.345039E-01  5.157300E-02  5.780620E-02 -2.55346191E-01
  1.257328E-01  5.049130E-02  5.780583E-02 -2.55683891E-01
  1.173839E-01  4.936839E-02  5.780549E-02 -2.54833000E-01
  1.094471E-01  4.820928E-02  5.780516E-02 -2.52822628E-01
  1.019116E-01  4.701860E-02  5.780485E-02 -2.49632795E-01
  9.476573E-02  4.580056E-02  5.780455E-02 -2.45273379E-01
  8.799750E-02  4.455951E-02  5.780427E-02 -2.39774846E-01
  8.159445E-02  4.329910E-02  5.780400E-02 -2.33246019E-01
  7.554374E-02  4.202335E-02  5.780374E-02 -2.25721285E-01
  6.983250E-02  4.073526E-02  5.780350E-02 -2.17251427E-01
  6.444765E-02  3.943828E-02  5.780327E-02 -2.07817153E-01
  5.937628E-02  3.813496E-02  5.780306E-02 -1.97449278E-01
  5.460542E-02  3.682820E-02  5.780286E-02 -1.86386379E-01
  5.012230E-02  3.552049E-02  5.780266E-02 -1.74312077E-01
  4.591463E-02  3.421326E-02  5.780248E-02 -1.61248457E-01
  4.196997E-02  3.290921E-02  5.780231E-02 -1.47357734E-01
  3.827651E-02  3.160972E-02  5.780215E-02 -1.32590688E-01
  3.482262E-02  3.031666E-02  5.780200E-02 -1.16712968E-01
  3.159733E-02  2.903090E-02  5.780186E-02 -9.98005343E-02
  2.858959E-02  2.775450E-02  5.780172E-02 -8.19100180E-02
  2.578942E-02  2.648779E-02  5.780160E-02 -6.27317823E-02
  2.318687E-02  2.523199E-02  5.780148E-02 -4.18898179E-02
  2.077286E-02  2.398746E-02  5.780137E-02 -1.99448347E-02
  1.853748E-02  2.275692E-02  5.780126E-02  3.36120220E-03
  1.647320E-02  2.153939E-02  5.780116E-02  2.82279362E-02
  1.457072E-02  2.033774E-02  5.780107E-02  5.40404887E-02
  1.282298E-02  1.915178E-02  5.780098E-02  8.14573710E-02
  1.122296E-02  1.798211E-02  5.780090E-02  1.10673051E-01
  9.763887E-03  1.682966E-02  5.780083E-02  1.41896249E-01
  8.438421E-03  1.569656E-02  5.780076E-02  1.73425656E-01
  7.238318E-03  1.458602E-02  5.780069E-02  2.06409372E-01
  6.160612E-03  1.349595E-02  5.780062E-02  2.40084842E-01
  5.195092E-03  1.243209E-02  5.780057E-02  2.74581721E-01
  4.340749E-03  1.139159E-02  5.780051E-02  3.10193912E-01
  3.585365E-03  1.038140E-02  5.780046E-02  3.44043800E-01
  2.923808E-03  9.402274E-03  5.780041E-02  3.77252674E-01
  2.351929E-03  8.454624E-03  5.780036E-02  4.09879660E-01
  1.862628E-03  7.540791E-03  5.780032E-02  4.40519607E-01
  1.447481E-03  6.663402E-03  5.780028E-02  4.68858008E-01
  1.102179E-03  5.822773E-03  5.780024E-02  4.95175418E-01
  8.198209E-04  5.020349E-03  5.780021E-02  5.18619748E-01
  5.911665E-04  4.257822E-03  5.780018E-02  5.38887254E-01
  4.074955E-04  3.535805E-03  5.780015E-02  5.54860713E-01
  2.606758E-04  2.853963E-03  5.780012E-02  5.69173896E-01
  1.628103E-04  2.208674E-03  5.780009E-02  5.81048586E-01
  8.759507E-05  1.602910E-03  5.780007E-02  5.89449183E-01
  3.866781E-05  1.033671E-03  5.780004E-02  5.96360975E-01
  1.515833E-05  4.998794E-04  5.780002E-02  6.01049592E-01
  4.176232E-06  0.000000E+00  5.780000E-02  6.04208780E-01
  1.515833E-05 -4.998794E-04  5.780002E-02  6.06057556E-01
  3.866781E-05 -1.033671E-03  5.780004E-02  6.06496570E-01
  8.759507E-05 -1.602910E-03  5.780007E-02  6.05252838E-01
  1.628103E-04 -2.208674E-03  5.780009E-02  6.02254178E-01
  2.606758E-04 -2.853963E-03  5.780012E-02  5.96694905E-01
  4.074955E-04 -3.535805E-03  5.780015E-02  5.88548633E-01
  5.911665E-04 -4.257822E-03  5.780018E-02  5.78285443E-01
  8.198209E-04 -5.020349E-03  5.780021E-02  5.64450653E-01
  1.102179E-03 -5.822773E-03  5.780024E-02  5.47389819E-01
  1.447481E-03 -6.663402E-03  5.780028E-02  5.27238144E-01
  1.862628E-03 -7.540791E-03  5.780032E-02  5.04572687E-01
  2.351929E-03 -8.454624E-03  5.780036E-02  4.79267615E-01
  2.923808E-03 -9.402274E-03  5.780041E-02  4.51554880E-01
  3.585365E-03 -1.038140E-02  5.780046E-02  4.22556629E-01
  4.340749E-03 -1.139159E-02  5.780051E-02  3.92392969E-01
  5.195092E-03 -1.243209E-02  5.780057E-02  3.60227682E-01
  6.160612E-03 -1.349595E-02  5.780062E-02  3.28413899E-01
  7.238318E-03 -1.458602E-02  5.780069E-02  2.96837400E-01
  8.438421E-03 -1.569656E-02  5.780076E-02  2.65479880E-01
  9.763887E-03 -1.682966E-02  5.780083E-02  2.35080571E-01
  1.122296E-02 -1.798211E-02  5.780090E-02  2.04742298E-01
  1.282298E-02 -1.915178E-02  5.780098E-02  1.75948753E-01
  1.457072E-02 -2.033774E-02  5.780107E-02  1.48551876E-01
  1.647320E-02 -2.153939E-02  5.780116E-02  1.22442668E-01
  1.853748E-02 -2.275692E-02  5.780126E-02  9.71040897E-02
  2.077286E-02 -2.398746E-02  5.780137E-02  7.30851862E-02
  2.318687E-02 -2.523199E-02  5.780148E-02  5.02258503E-02
  2.578942E-02 -2.648779E-02  5.780160E-02  2.83369838E-02
  2.858959E-02 -2.775450E-02  5.780172E-02  7.89226204E-03
  3.159733E-02 -2.903090E-02  5.780186E-02 -1.14390442E-02
  3.482262E-02 -3.031666E-02  5.780200E-02 -2.98867172E-02
  3.827651E-02 -3.160972E-02  5.780215E-02 -4.73825567E-02
  4.196997E-02 -3.290921E-02  5.780231E-02 -6.38704030E-02
  4.591463E-02 -3.421326E-02  5.780248E-02 -7.95356587E-02
  5.012230E-02 -3.552049E-02  5.780266E-02 -9.43910826E-02
  5.460542E-02 -3.682820E-02  5.780286E-02 -1.08304805E-01
  5.937628E-02 -3.813496E-02  5.780306E-02 -1.21294156E-01
  6.444765E-02 -3.943828E-02  5.780327E-02 -1.33592475E-01
  6.983250E-02 -4.073526E-02  5.780350E-02 -1.44939218E-01
  7.554374E-02 -4.202335E-02  5.780374E-02 -1.55355267E-01
  8.159445E-02 -4.329910E-02  5.780400E-02 -1.64852496E-01
  8.799750E-02 -4.455951E-02  5.780427E-02 -1.73354210E-01
  9.476573E-02 -4.580056E-02  5.780455E-02 -1.80807753E-01
  1.019116E-01 -4.701860E-02  5.780485E-02 -1.87068003E-01
  1.094471E-01 -4.820928E-02  5.780516E-02 -1.92072781E-01
  1.173839E-01 -4.936839E-02  5.780549E-02 -1.95765726E-01
  1.257328E-01 -5.049130E-02  5.780583E-02 -1.98101137E-01
  1.345039E-01 -5.157300E-02  5.780620E-02 -1.98968693E-01
  1.437062E-01 -5.260867E-02  5.780658E-02 -1.98351188E-01
  1.533477E-01 -5.359322E-02  5.780659E-02 -1.96346124E-01
  1.634348E-01 -5.452142E-02  5.780650E-02 -1.93156414E-01
  1.739727E-01 -5.538799E-02  5.780640E-02 -1.89238930E-01
  1.849648E-01 -5.618792E-02  5.780630E-02 -1.85242918E-01
  1.964127E-01 -5.691610E-02  5.780620E-02 -1.79674737E-01
  2.078954E-01 -5.754614E-02  5.780610E-02 -1.74783990E-01
  2.190243E-01 -5.806733E-02  5.780600E-02 -1.69626970E-01
  2.298997E-01 -5.849670E-02  5.780590E-02 -1.63754729E-01
  2.405984E-01 -5.884644E-02  5.780581E-02 -1.57694953E-01
  2.510443E-01 -5.912209E-02  5.780572E-02 -1.51949235E-01
  2.613870E-01 -5.933424E-02  5.780562E-02 -1.46239734E-01
  2.715704E-01 -5.948691E-02  5.780553E-02 -1.40649349E-01
  2.815924E-01 -5.958524E-02  5.780545E-02 -1.35152337E-01
  2.915962E-01 -5.963431E-02  5.780536E-02 -1.29851339E-01
  3.014571E-01 -5.963678E-02  5.780527E-02 -1.25259986E-01
  3.112653E-01 -5.959594E-02  5.780518E-02 -1.21207584E-01
  3.210380E-01 -5.951404E-02  5.780509E-02 -1.17504462E-01
  3.307130E-01 -5.939402E-02  5.780501E-02 -1.14119908E-01
  3.404178E-01 -5.923628E-02  5.780492E-02 -1.11026805E-01
  3.500644E-01 -5.904375E-02  5.780484E-02 -1.08289539E-01
  3.596724E-01 -5.881792E-02  5.780475E-02 -1.05781814E-01
  3.693152E-01 -5.855836E-02  5.780467E-02 -1.03440813E-01
  3.789047E-01 -5.826867E-02  5.780458E-02 -1.01319620E-01
  3.885127E-01 -5.794799E-02  5.780449E-02 -9.93159913E-02
  3.981197E-01 -5.759794E-02  5.780441E-02 -9.74615040E-02
  4.076935E-01 -5.722085E-02  5.780432E-02 -9.57318228E-02
  4.173171E-01 -5.681437E-02  5.780424E-02 -9.40823717E-02
  4.269135E-01 -5.638250E-02  5.780415E-02 -9.25520614E-02
  4.365103E-01 -5.592504E-02  5.780407E-02 -9.10973369E-02
  4.461242E-01 -5.544195E-02  5.780398E-02 -8.97194085E-02
  4.557180E-01 -5.493587E-02  5.780390E-02 -8.83754245E-02
  4.653255E-01 -5.440583E-02  5.780381E-02 -8.70233441E-02
  4.749236E-01 -5.385380E-02  5.780373E-02 -8.56519890E-02
  4.845114E-01 -5.328056E-02  5.780364E-02 -8.42392714E-02
  4.940998E-01 -5.268622E-02  5.780356E-02 -8.27786456E-02
  5.036722E-01 -5.207237E-02  5.780347E-02 -8.12535583E-02
  5.132349E-01 -5.143938E-02  5.780338E-02 -7.96247543E-02
  5.227767E-01 -5.078859E-02  5.780330E-02 -7.78592877E-02
  5.323096E-01 -5.011983E-02  5.780321E-02 -7.59488259E-02
  5.418110E-01 -4.943528E-02  5.780313E-02 -7.39257372E-02
  5.512925E-01 -4.873475E-02  5.780305E-02 -7.18160788E-02
  5.607634E-01 -4.801808E-02  5.780296E-02 -6.96222942E-02
  5.701798E-01 -4.728917E-02  5.780288E-02 -6.73091204E-02
  5.795914E-01 -4.654475E-02  5.780279E-02 -6.47956515E-02
  5.889655E-01 -4.578786E-02  5.780271E-02 -6.20983516E-02
  5.982993E-01 -4.501930E-02  5.780263E-02 -5.92853537E-02
  6.076392E-01 -4.423561E-02  5.780254E-02 -5.64097597E-02
  6.169003E-01 -4.344443E-02  5.780246E-02 -5.35416030E-02
  6.261590E-01 -4.263969E-02  5.780238E-02 -5.06417017E-02
  6.354071E-01 -4.182239E-02  5.780230E-02 -4.77307220E-02
  6.445879E-01 -4.099797E-02  5.780221E-02 -4.48626121E-02
  6.537952E-01 -4.015829E-02  5.780213E-02 -4.20144013E-02
  6.629556E-01 -3.931033E-02  5.780205E-02 -3.92242612E-02
  6.721050E-01 -3.845106E-02  5.780197E-02 -3.64505658E-02
  6.813055E-01 -3.757476E-02  5.780189E-02 -3.36351842E-02
  6.902684E-01 -3.670944E-02  5.780181E-02 -3.08484031E-02
  6.990838E-01 -3.584728E-02  5.780173E-02 -2.79985455E-02
  7.076994E-01 -3.499417E-02  5.780165E-02 -2.50753033E-02
  7.160720E-01 -3.415528E-02  5.780158E-02 -2.20506577E-02
  7.243028E-01 -3.332122E-02  5.780150E-02 -1.88381004E-02
  7.322746E-01 -3.250459E-02  5.780143E-02 -1.54604264E-02
  7.400641E-01 -3.169833E-02  5.780136E-02 -1.18658726E-02
  7.477005E-01 -3.089998E-02  5.780129E-02 -8.01466409E-03
  7.550529E-01 -3.012394E-02  5.780123E-02 -3.90113841E-03
  7.622734E-01 -2.935478E-02  5.780116E-02  7.05804062E-04
  7.692849E-01 -2.860124E-02  5.780110E-02  5.93187552E-03
  7.760805E-01 -2.786462E-02  5.780104E-02  1.18429321E-02
  7.827527E-01 -2.713539E-02  5.780098E-02  1.83593618E-02
  7.891615E-01 -2.642937E-02  5.780092E-02  2.49840423E-02
  7.954267E-01 -2.573388E-02  5.780087E-02  3.13923323E-02
  8.015423E-01 -2.505018E-02  5.780081E-02  3.72908255E-02
  8.074155E-01 -2.438854E-02  5.780076E-02  4.26274751E-02
  8.131823E-01 -2.373444E-02  5.780071E-02  4.77702325E-02
  8.187504E-01 -2.309876E-02  5.780066E-02  5.28768773E-02
  8.241515E-01 -2.247834E-02  5.780061E-02  5.81062100E-02
  8.294575E-01 -2.186530E-02  5.780056E-02  6.33836825E-02
  8.345214E-01 -2.127590E-02  5.780052E-02  6.83336723E-02
  8.394919E-01 -2.069423E-02  5.780047E-02  7.27907512E-02
  8.443308E-01 -2.012507E-02  5.780043E-02  7.64469967E-02
  8.489886E-01 -1.957460E-02  5.780039E-02  7.91885434E-02
  8.535738E-01 -1.902876E-02  5.780035E-02  8.12075593E-02
  8.579896E-01 -1.850079E-02  5.780031E-02  8.25859380E-02
  8.622980E-01 -1.798373E-02  5.780027E-02  8.34367609E-02
  8.665397E-01 -1.747113E-02  5.780023E-02  8.40226857E-02
  8.705970E-01 -1.697890E-02  5.780019E-02  8.44839356E-02
  8.746075E-01 -1.649068E-02  5.780016E-02  8.48332905E-02
  8.785183E-01 -1.601131E-02  5.780012E-02  8.52244462E-02
  8.823173E-01 -1.554426E-02  5.780009E-02  8.56662458E-02
  8.860842E-01 -1.507923E-02  5.780005E-02  8.60557665E-02
  8.897261E-01 -1.462714E-02  5.780002E-02  8.64745501E-02
  8.933234E-01 -1.417947E-02  5.780001E-02  8.68305045E-02
  8.968861E-01 -1.373364E-02  5.780000E-02  8.70947941E-02
  9.003438E-01 -1.329942E-02  5.780000E-02  8.73080838E-02
  9.037991E-01 -1.286416E-02  5.780000E-02  8.73670238E-02
  9.071992E-01 -1.243336E-02  5.780000E-02  8.73688880E-02
  9.105598E-01 -1.200661E-02  5.780000E-02  8.72921609E-02
  9.139352E-01 -1.157593E-02  5.780000E-02  8.71012920E-02
  9.172430E-01 -1.115222E-02  5.780000E-02  8.68989996E-02
  9.205705E-01 -1.072491E-02  5.780000E-02  8.65945160E-02
  9.239077E-01 -1.029382E-02  5.780000E-02  8.62731440E-02
  9.272209E-01 -9.864653E-03  5.780000E-02  8.59619767E-02
  9.305836E-01 -9.427611E-03  5.780000E-02  8.55657372E-02
  9.339483E-01 -8.987944E-03  5.780000E-02  8.52175110E-02
  9.373476E-01 -8.542419E-03  5.780000E-02  8.49024975E-02
  9.408177E-01 -8.086074E-03  5.780000E-02  8.45782748E-02
  9.442875E-01 -7.627208E-03  5.780000E-02  8.43192230E-02
  9.475237E-01 -7.197807E-03  5.780000E-02  8.41385975E-02
  9.505428E-01 -6.796144E-03  5.780000E-02  8.40419612E-02
  9.533598E-01 -6.419417E-03  5.780000E-02  8.41306004E-02
  9.559889E-01 -6.067088E-03  5.780000E-02  8.43149351E-02
  9.584431E-01 -5.737094E-03  5.780000E-02  8.45783973E-02
  9.607345E-01 -5.428130E-03  5.780000E-02  8.49560680E-02
  9.628741E-01 -5.138896E-03  5.780000E-02  8.53962295E-02
  9.648724E-01 -4.868120E-03  5.780000E-02  8.59139433E-02
  9.667390E-01 -4.614477E-03  5.780000E-02  8.65317785E-02
  9.684828E-01 -4.377393E-03  5.780000E-02  8.71720569E-02
  9.701120E-01 -4.154861E-03  5.780000E-02  8.78948082E-02
  9.716345E-01 -3.946911E-03  5.780000E-02  8.86988171E-02
  9.730573E-01 -3.752236E-03  5.780000E-02  8.94775493E-02
  9.743871E-01 -3.569683E-03  5.780000E-02  9.03468931E-02
  9.756301E-01 -3.399041E-03  5.780000E-02  9.12586938E-02
  9.767921E-01 -3.239478E-03  5.780000E-02  9.21244097E-02
  9.778784E-01 -3.089610E-03  5.780000E-02  9.30500025E-02
  9.788941E-01 -2.949482E-03  5.780000E-02  9.40245486E-02
  9.798438E-01 -2.818452E-03  5.780000E-02  9.49714403E-02
  9.807320E-01 -2.695922E-03  5.780000E-02  9.58864118E-02
  9.815625E-01 -2.580845E-03  5.780000E-02  9.68161281E-02
  9.823392E-01 -2.473163E-03  5.780000E-02  9.77832923E-02
  9.830656E-01 -2.372448E-03  5.780000E-02  9.87090643E-02
  9.837451E-01 -2.278244E-03  5.780000E-02  9.96159925E-02
  9.843807E-01 -2.190127E-03  5.780000E-02  1.00494919E-01
  9.849752E-01 -2.107600E-03  5.780000E-02  1.01338283E-01
  9.855314E-01 -2.030128E-03  5.780000E-02  1.02183683E-01
  9.860516E-01 -1.957651E-03  5.780000E-02  1.03010863E-01
  9.865384E-01 -1.889845E-03  5.780000E-02  1.03794817E-01
  9.869938E-01 -1.826408E-03  5.780000E-02  1.04550672E-01
  9.874198E-01 -1.767055E-03  5.780000E-02  1.05263238E-01
  9.878185E-01 -1.711522E-03  5.780000E-02  1.05936004E-01
  9.881915E-01 -1.659562E-03  5.780000E-02  1.06573572E-01
  9.885405E-01 -1.610943E-03  5.780000E-02  1.07158597E-01
  9.888670E-01 -1.565368E-03  5.780000E-02  1.07669548E-01
  9.891726E-01 -1.522600E-03  5.780000E-02  1.08156640E-01
  9.894585E-01 -1.482580E-03  5.780000E-02  1.08523784E-01
  9.897261E-01 -1.445131E-03  5.780000E-02  1.09256563E-01
  9.899765E-01 -1.409851E-03  5.780000E-02  1.09181249E-01
  9.902098E-01 -1.370674E-03  5.780000E-02  1.11183953E-01
  9.904279E-01 -1.332649E-03  5.780000E-02  1.11139609E-01
  9.906213E-01 -1.261142E-03  5.780000E-02  1.10953949E-01
  9.907887E-01 -1.163795E-03  5.780000E-02  1.14025342E-01
  9.909321E-01 -1.052852E-03  5.780000E-02  1.15487388E-01
  9.910523E-01 -9.330407E-04  5.780000E-02  1.15678369E-01
  9.911504E-01 -8.081179E-04  5.780000E-02  1.14844335E-01
  9.912299E-01 -6.824315E-04  5.780000E-02  1.14381624E-01
  9.912909E-01 -5.573683E-04  5.780000E-02  1.14588434E-01
  9.913368E-01 -4.354958E-04  5.780000E-02  1.15084061E-01
  9.913698E-01 -3.181453E-04  5.780000E-02  1.15769989E-01
  9.913914E-01 -2.061077E-04  5.780000E-02  1.16442673E-01
  9.914032E-01 -9.993877E-05  5.780000E-02  1.16875522E-01
  9.914068E-01  0.000000E+00  5.780000E-02  1.16965288E-01
  9.914068E-01  0.000000E+00  5.313449E-02  1.15093994E-01
  9.914032E-01  9.993673E-05  5.313449E-02  1.18225123E-01
  9.913914E-01  2.061153E-04  5.313449E-02  1.18571808E-01
  9.913697E-01  3.181807E-04  5.313449E-02  1.18981652E-01
  9.913367E-01  4.355683E-04  5.313449E-02  1.19005323E-01
  9.912908E-01  5.574915E-04  5.313449E-02  1.19232095E-01
  9.912298E-01  6.826095E-04  5.313449E-02  1.19667375E-01
  9.911503E-01  8.083653E-04  5.313449E-02  1.20521427E-01
  9.910521E-01  9.333453E-04  5.313449E-02  1.21622484E-01
  9.909317E-01  1.053235E-03  5.313449E-02  1.21504377E-01
  9.907881E-01  1.164205E-03  5.313449E-02  1.20025975E-01
  9.906205E-01  1.261544E-03  5.313449E-02  1.17907550E-01
  9.904268E-01  1.332853E-03  5.313449E-02  1.18710542E-01
  9.902084E-01  1.370913E-03  5.313449E-02  1.19088300E-01
  9.899748E-01  1.410123E-03  5.313449E-02  1.17989056E-01
  9.897241E-01  1.445415E-03  5.313449E-02  1.18221834E-01
  9.894561E-01  1.482917E-03  5.313449E-02  1.17774495E-01
  9.891698E-01  1.522996E-03  5.313449E-02  1.17600790E-01
  9.888638E-01  1.565829E-03  5.313449E-02  1.17303562E-01
  9.885367E-01  1.611476E-03  5.313449E-02  1.16955746E-01
  9.881871E-01  1.660175E-03  5.313449E-02  1.16524808E-01
  9.878135E-01  1.712223E-03  5.313449E-02  1.16035192E-01
  9.874141E-01  1.767852E-03  5.313449E-02  1.15491595E-01
  9.869873E-01  1.827310E-03  5.313449E-02  1.14893545E-01
  9.865311E-01  1.890861E-03  5.313449E-02  1.14244278E-01
  9.860435E-01  1.958789E-03  5.313449E-02  1.13543413E-01
  9.855223E-01  2.031398E-03  5.313449E-02  1.12774718E-01
  9.849651E-01  2.109011E-03  5.313449E-02  1.11975449E-01
  9.843695E-01  2.191681E-03  5.313449E-02  1.11142356E-01
  9.837328E-01  2.279956E-03  5.313449E-02  1.10238949E-01
  9.830521E-01  2.374324E-03  5.313449E-02  1.09278068E-01
  9.823244E-01  2.475212E-03  5.313449E-02  1.08257223E-01
  9.815464E-01  2.583073E-03  5.313449E-02  1.07167131E-01
  9.807146E-01  2.698322E-03  5.313449E-02  1.06055481E-01
  9.798251E-01  2.821036E-03  5.313449E-02  1.04893569E-01
  9.788740E-01  2.952250E-03  5.313449E-02  1.03647951E-01
  9.778570E-01  3.092561E-03  5.313449E-02  1.02333967E-01
  9.767694E-01  3.242595E-03  5.313449E-02  1.00980532E-01
  9.756062E-01  3.402312E-03  5.313449E-02  9.95867038E-02
  9.743622E-01  3.573098E-03  5.313449E-02  9.81055242E-02
  9.730315E-01  3.755770E-03  5.313449E-02  9.65892950E-02
  9.716081E-01  3.950515E-03  5.313449E-02  9.50657005E-02
  9.700853E-01  4.158509E-03  5.313449E-02  9.34422503E-02
  9.684562E-01  4.381029E-03  5.313449E-02  9.18193571E-02
  9.667130E-01  4.618015E-03  5.313449E-02  9.01901229E-02
  9.648476E-01  4.871494E-03  5.313449E-02  8.85175126E-02
  9.628513E-01  5.141983E-03  5.313449E-02  8.68701252E-02
  9.607146E-01  5.430822E-03  5.313449E-02  8.52295271E-02
  9.584273E-01  5.739226E-03  5.313449E-02  8.36115522E-02
  9.559785E-01  6.068489E-03  5.313449E-02  8.20505630E-02
  9.533565E-01  6.419865E-03  5.313449E-02  8.05101697E-02
  9.505485E-01  6.795383E-03  5.313449E-02  7.90148195E-02
  9.475408E-01  7.195539E-03  5.313449E-02  7.76716790E-02
  9.443187E-01  7.623087E-03  5.313449E-02  7.62560038E-02
  9.408663E-01  8.079680E-03  5.313449E-02  7.48723960E-02
  9.373961E-01  8.536037E-03  5.313449E-02  7.34300994E-02
  9.339968E-01  8.981600E-03  5.313449E-02  7.19785241E-02
  9.306321E-01  9.421305E-03  5.313449E-02  7.04815447E-02
  9.272693E-01  9.858350E-03  5.313449E-02  6.88422078E-02
  9.239561E-01  1.028756E-02  5.313449E-02  6.69269172E-02
  9.206189E-01  1.071866E-02  5.313449E-02  6.47452113E-02
  9.172913E-01  1.114601E-02  5.313449E-02  6.22784146E-02
  9.139834E-01  1.156978E-02  5.313449E-02  5.94831475E-02
  9.106079E-01  1.200047E-02  5.313449E-02  5.64348812E-02
  9.072472E-01  1.242728E-02  5.313449E-02  5.32232793E-02
  9.038469E-01  1.285813E-02  5.313449E-02  4.99896668E-02
  9.003915E-01  1.329341E-02  5.313449E-02  4.69289830E-02
  8.969337E-01  1.372769E-02  5.313448E-02  4.41486796E-02
  8.933708E-01  1.417354E-02  5.313449E-02  4.18369837E-02
  8.897732E-01  1.462128E-02  5.313451E-02  4.00683793E-02
  8.861311E-01  1.507343E-02  5.313454E-02  3.88607427E-02
  8.823640E-01  1.553849E-02  5.313457E-02  3.82361288E-02
  8.785648E-01  1.600561E-02  5.313460E-02  3.79924390E-02
  8.746538E-01  1.648501E-02  5.313463E-02  3.80939227E-02
  8.706430E-01  1.697329E-02  5.313466E-02  3.83898015E-02
  8.665856E-01  1.746559E-02  5.313470E-02  3.86201433E-02
  8.623436E-01  1.797822E-02  5.313473E-02  3.87524523E-02
  8.580350E-01  1.849535E-02  5.313477E-02  3.86508882E-02